============================== echo of input deck ==============================
echo
start prop_caffeine_run
title caffeine

memory heap 20 stack 1000 global 1000 mb

geometry
H      -3.3804130    -1.1272367     0.5733036
N       0.9668296    -1.0737425    -0.8198227
C       0.0567293     0.8527195     0.3923156
N      -1.3751742    -1.0212243    -0.0570552
C      -1.2615018     0.2590713     0.5234135
C      -0.3068337    -1.6836331    -0.7169344
C       1.1394235     0.1874122    -0.2700900
N       0.5602627     2.0839095     0.8251589
O      -0.4926797    -2.8180554    -1.2094732
C      -2.6328073    -1.7303959    -0.0060953
O      -2.2301338     0.7988624     1.0899730
H       2.5496990     2.9734977     0.6229590
C       2.0527432    -1.7360887    -1.4931279
H      -2.4807715    -2.7269528     0.4882631
H      -3.0089039    -1.9025254    -1.0498023
H       2.9176101    -1.8481516    -0.7857866
H       2.3787863    -1.1211917    -2.3743655
H       1.7189877    -2.7489920    -1.8439205
C      -0.1518450     3.0970046     1.5348347
C       1.8934096     2.1181245     0.4193193
N       2.2861252     0.9968439    -0.2440298
H      -0.1687028     4.0436553     0.9301094
H       0.3535322     3.2979060     2.5177747
H      -1.2074498     2.7537592     1.7203047
end

basis
 * library cc-pvdz
# * library aug-cc-pvtz
end
charge 0

task scf energy
task scf optimize
task scf freq

dft
 xc b3lyp
end

task dft energy
task dft optimize
task dft freq
================================================================================

         Total SCF energy =   -676.357837441209
         Total SCF energy =   -676.357837441209
@ Step       Energy      Delta E   Gmax     Grms     Xrms     Xmax   Walltime
@ ---- ---------------- -------- -------- -------- -------- -------- --------
@    0    -676.35783744  0.0D+00  0.08819  0.01778  0.00000  0.00000    135.6
         Total SCF energy =   -676.396075698422
         Total SCF energy =   -676.396075698422
@    1    -676.39607570 -3.8D-02  0.00221  0.00044  0.07577  0.24800    263.9
         Total SCF energy =   -676.396101860491
         Total SCF energy =   -676.396101860491
@    2    -676.39610186 -2.6D-05  0.00027  0.00007  0.00282  0.00819    382.0
         Total SCF energy =   -676.396102638032
         Total SCF energy =   -676.396102829231
@    3    -676.39610283 -9.7D-07  0.00012  0.00002  0.00069  0.00298    568.9
         Total SCF energy =   -676.396103006930
         Total SCF energy =   -676.396103127421
@    4    -676.39610313 -3.0D-07  0.00009  0.00002  0.00030  0.00097    753.0
@    4    -676.39610313 -3.0D-07  0.00009  0.00002  0.00030  0.00097    753.0
         Total SCF energy =   -676.396103846158
 Zero-Point correction to Energy  =  126.702 kcal/mol  (  0.201913 au)
 Thermal correction to Energy     =  133.484 kcal/mol  (  0.212720 au)
 Thermal correction to Enthalpy   =  134.076 kcal/mol  (  0.213663 au)
 Total Entropy                    =  102.699 cal/mol-K
   - Translational                =   41.676 cal/mol-K (mol. weight = 194.0803)
   - Rotational                   =   31.237 cal/mol-K (symmetry #  =        1)
   - Vibrational                  =   29.787 cal/mol-K
   - Translational                  =    2.979 cal/mol-K
   - Rotational                     =    2.979 cal/mol-K
   - Vibrational                    =   34.120 cal/mol-K
 P.Frequency     -112.98      -20.02       -0.00       -0.00       -0.00       -0.00
 P.Frequency        0.00        0.00       92.10       94.55      119.15      131.75
 P.Frequency      165.44      230.63      237.17      289.49      327.28      385.48
 P.Frequency      392.82      435.16      464.12      479.51      520.89      592.86
 P.Frequency      666.19      697.36      795.98      805.84      852.20      868.31
 P.Frequency      883.32     1012.92     1015.44     1070.63     1140.78     1172.67
 P.Frequency     1188.27     1240.69     1246.17     1248.54     1311.07     1337.32
 P.Frequency     1353.70     1396.14     1446.93     1487.58     1523.61     1528.99
 P.Frequency     1551.57     1560.20     1587.15     1598.81     1600.46     1602.96
 P.Frequency     1606.63     1611.83     1616.29     1647.28     1737.73     1806.72
 P.Frequency     1900.41     1945.33     3209.78     3217.42     3231.59     3284.99
 P.Frequency     3289.68     3306.77     3357.84     3368.31     3373.67     3409.29
         Total DFT energy =     -680.419062142447
         Total DFT energy =   -680.419062142447
@ Step       Energy      Delta E   Gmax     Grms     Xrms     Xmax   Walltime
@ ---- ---------------- -------- -------- -------- -------- -------- --------
@    0    -680.41906214  0.0D+00  0.04794  0.00833  0.00000  0.00000   1980.0
         Total DFT energy =     -680.425263706014
         Total DFT energy =   -680.425263706014
@    1    -680.42526371 -6.2D-03  0.00432  0.00086  0.03310  0.07852   2150.9
         Total DFT energy =     -680.425388938619
         Total DFT energy =     -680.425406990869
@    2    -680.42540699 -1.4D-04  0.00104  0.00025  0.00549  0.01804   2400.3
         Total DFT energy =     -680.425421471959
         Total DFT energy =     -680.425422236417
@    3    -680.42542224 -1.5D-05  0.00032  0.00006  0.00208  0.00644   2609.3
         Total DFT energy =     -680.425424261452

 Vector   90  Occ=0.000000D+00  E= 4.875907D-01

 Vector   91  Occ=0.000000D+00  E= 5.051310D-01

         Total DFT energy =   -680.425424261452
@    4    -680.42542426 -2.0D-06  0.00014  0.00003  0.00053  0.00132   2746.3
@    4    -680.42542426 -2.0D-06  0.00014  0.00003  0.00053  0.00132   2746.3

 Output coordinates in angstroms (scale by  1.889725989 to convert to a.u.)

  No.       Tag          Charge          X              Y              Z
 ---- ---------------- ---------- -------------- -------------- --------------
    1 H                    1.0000    -3.08986826    -1.72121762     0.01671238
    2 N                    7.0000     1.30918158    -0.96886930    -0.00006146
    3 C                    6.0000    -0.22198677     0.89591305     0.00070774
    4 N                    7.0000    -1.05788004    -1.30488370     0.00205157
    5 C                    6.0000    -1.39847354     0.07130882     0.00147311
    6 C                    6.0000     0.23771536    -1.86271295    -0.00294418
    7 C                    6.0000     1.06367094     0.38446085    -0.00057519
    8 N                    7.0000    -0.06103990     2.27525283     0.00207792
    9 O                    8.0000     0.39428274    -3.07341332    -0.00791277
   10 C                    6.0000    -2.15092083    -2.28218695    -0.00153319
   11 O                    8.0000    -2.56447035     0.45735031     0.00233571
   12 H                    1.0000     1.69940445     3.49284824     0.00233020
   13 C                    6.0000     2.67988481    -1.47340914    -0.00433349
   14 H                    1.0000    -2.07280695    -2.93773396     0.87666242
   15 H                    1.0000    -2.09328831    -2.91066599    -0.90124666
   16 H                    1.0000     3.22532269    -1.08998263     0.87020625
   17 H                    1.0000     3.20432079    -1.14252513    -0.91311659
   18 H                    1.0000     2.62740371    -2.56571213     0.02652057
   19 C                    6.0000    -1.12430626     3.27675926    -0.00068724
   20 C                    6.0000     1.27985181     2.48912614     0.00130213
   21 N                    7.0000     2.00255964     1.36894624    -0.00020566
   22 H                    1.0000    -1.06783356     3.89278367    -0.91043565
   23 H                    1.0000    -1.03884922     3.92638757     0.88278968
   24 H                    1.0000    -2.08235710     2.74528812     0.02328606

         Total DFT energy =     -680.425435629572

                       DFT Final Molecular Orbital Analysis
                       ------------------------------------

 Vector   14  Occ=2.000000D+00  E=-1.021742D+01

 Vector   15  Occ=2.000000D+00  E=-1.072605D+00

 Vector   16  Occ=2.000000D+00  E=-1.047426D+00

 Vector   17  Occ=2.000000D+00  E=-1.038829D+00

 Vector   18  Occ=2.000000D+00  E=-9.721610D-01

 Vector   19  Occ=2.000000D+00  E=-9.348134D-01

 Vector   20  Occ=2.000000D+00  E=-9.040404D-01

 Vector   21  Occ=2.000000D+00  E=-7.940942D-01

 Vector   22  Occ=2.000000D+00  E=-7.386376D-01

 Vector   23  Occ=2.000000D+00  E=-7.306706D-01

 Vector   24  Occ=2.000000D+00  E=-7.096560D-01

 Vector   25  Occ=2.000000D+00  E=-6.548436D-01

 Vector   26  Occ=2.000000D+00  E=-6.399297D-01

 Vector   27  Occ=2.000000D+00  E=-6.005829D-01

 Vector   28  Occ=2.000000D+00  E=-5.803164D-01

 Vector   29  Occ=2.000000D+00  E=-5.307466D-01

 Vector   30  Occ=2.000000D+00  E=-5.067569D-01

 Vector   31  Occ=2.000000D+00  E=-5.047614D-01

 Vector   32  Occ=2.000000D+00  E=-4.795413D-01

 Vector   33  Occ=2.000000D+00  E=-4.773204D-01

 Vector   34  Occ=2.000000D+00  E=-4.538267D-01

 Vector   35  Occ=2.000000D+00  E=-4.515861D-01

 Vector   36  Occ=2.000000D+00  E=-4.495881D-01

 Vector   37  Occ=2.000000D+00  E=-4.367781D-01

 Vector   38  Occ=2.000000D+00  E=-4.267360D-01

 Vector   39  Occ=2.000000D+00  E=-4.201342D-01

 Vector   40  Occ=2.000000D+00  E=-4.191812D-01

 Vector   41  Occ=2.000000D+00  E=-3.969966D-01

 Vector   42  Occ=2.000000D+00  E=-3.890579D-01

 Vector   43  Occ=2.000000D+00  E=-3.889208D-01

 Vector   44  Occ=2.000000D+00  E=-3.886567D-01

 Vector   45  Occ=2.000000D+00  E=-3.217949D-01

 Vector   46  Occ=2.000000D+00  E=-3.034204D-01

 Vector   47  Occ=2.000000D+00  E=-2.885356D-01

 Vector   48  Occ=2.000000D+00  E=-2.831627D-01

 Vector   49  Occ=2.000000D+00  E=-2.678521D-01

 Vector   50  Occ=2.000000D+00  E=-2.622122D-01

 Vector   51  Occ=2.000000D+00  E=-2.209245D-01

 Vector   52  Occ=0.000000D+00  E=-3.654485D-02

 Vector   53  Occ=0.000000D+00  E= 2.231032D-02

 Vector   54  Occ=0.000000D+00  E= 2.835299D-02

 Vector   55  Occ=0.000000D+00  E= 5.538195D-02

 Vector   56  Occ=0.000000D+00  E= 7.857717D-02

 Vector   57  Occ=0.000000D+00  E= 8.500305D-02

 Vector   58  Occ=0.000000D+00  E= 9.084413D-02

 Vector   59  Occ=0.000000D+00  E= 1.147871D-01

 Vector   60  Occ=0.000000D+00  E= 1.163605D-01

 Vector   61  Occ=0.000000D+00  E= 1.252201D-01

 Vector   62  Occ=0.000000D+00  E= 1.273207D-01

 Vector   63  Occ=0.000000D+00  E= 1.335383D-01

 Vector   64  Occ=0.000000D+00  E= 1.405038D-01

 Vector   65  Occ=0.000000D+00  E= 1.438050D-01

 Vector   66  Occ=0.000000D+00  E= 1.538241D-01

 Vector   67  Occ=0.000000D+00  E= 1.680170D-01

 Vector   68  Occ=0.000000D+00  E= 1.734230D-01

 Vector   69  Occ=0.000000D+00  E= 1.879920D-01

 Vector   70  Occ=0.000000D+00  E= 2.228973D-01

 Vector   71  Occ=0.000000D+00  E= 2.275338D-01

 Vector   72  Occ=0.000000D+00  E= 2.519334D-01

 Vector   73  Occ=0.000000D+00  E= 2.702035D-01

 Vector   74  Occ=0.000000D+00  E= 2.840056D-01

 Vector   75  Occ=0.000000D+00  E= 2.999555D-01

 Vector   76  Occ=0.000000D+00  E= 3.277329D-01

 Vector   77  Occ=0.000000D+00  E= 3.369932D-01

 Vector   78  Occ=0.000000D+00  E= 3.568221D-01

 Vector   79  Occ=0.000000D+00  E= 3.771360D-01

 Vector   80  Occ=0.000000D+00  E= 3.862211D-01

 Vector   81  Occ=0.000000D+00  E= 3.978863D-01

 Vector   82  Occ=0.000000D+00  E= 4.161604D-01

 Vector   83  Occ=0.000000D+00  E= 4.235537D-01

 Vector   84  Occ=0.000000D+00  E= 4.336122D-01

 Vector   85  Occ=0.000000D+00  E= 4.404473D-01

 Vector   86  Occ=0.000000D+00  E= 4.534384D-01

 Vector   87  Occ=0.000000D+00  E= 4.733021D-01

 Vector   88  Occ=0.000000D+00  E= 4.785262D-01

 Vector   89  Occ=0.000000D+00  E= 4.791671D-01

 Vector   90  Occ=0.000000D+00  E= 4.875776D-01

 Vector   91  Occ=0.000000D+00  E= 5.051255D-01

     Multipole analysis of the density
     ---------------------------------

     L   x y z        total         alpha         beta         nuclear
     -   - - -        -----         -----         ----         -------
     0   0 0 0     -0.000000    -51.000000    -51.000000    102.000000

     1   1 0 0      0.239750      0.599573      0.599573     -0.959396
     1   0 1 0      1.417448      1.323222      1.323222     -1.228997
     1   0 0 1      0.001666      0.079647      0.079647     -0.157628

     2   2 0 0    -63.141796   -503.750227   -503.750227    944.358657
     2   1 1 0      0.128809      6.730047      6.730047    -13.331285
     2   1 0 1      0.014856      0.311006      0.311006     -0.607157
     2   0 2 0    -54.975577   -736.270260   -736.270260   1417.564943
     2   0 1 1     -0.025893     -0.650437     -0.650437      1.274981

 Zero-Point correction to Energy  =  117.508 kcal/mol  (  0.187261 au)
 Thermal correction to Energy     =  125.292 kcal/mol  (  0.199666 au)
 Thermal correction to Enthalpy   =  125.885 kcal/mol  (  0.200610 au)
 Total Entropy                    =  111.057 cal/mol-K
   - Translational                =   41.676 cal/mol-K (mol. weight = 194.0803)
   - Rotational                   =   31.288 cal/mol-K (symmetry #  =        1)
   - Vibrational                  =   38.093 cal/mol-K
   - Translational                  =    2.979 cal/mol-K
   - Rotational                     =    2.979 cal/mol-K
   - Vibrational                    =   39.336 cal/mol-K
 P.Frequency      -51.28       -0.00       -0.00       -0.00       -0.00        0.00
 P.Frequency        0.00       44.92       67.14       86.73      115.16      122.99
 P.Frequency      150.05      219.98      225.41      275.26      300.20      356.12
 P.Frequency      363.12      397.60      422.32      442.04      480.47      555.53
 P.Frequency      618.75      643.07      704.80      749.59      749.88      760.79
 P.Frequency      812.48      839.71      941.17      994.59     1041.30     1075.36
 P.Frequency     1089.50     1137.63     1142.35     1144.30     1206.39     1236.10
 P.Frequency     1256.60     1265.97     1314.38     1363.65     1379.38     1403.13
 P.Frequency     1416.57     1428.33     1450.52     1465.32     1467.17     1474.20
 P.Frequency     1478.72     1480.55     1488.51     1510.09     1586.89     1640.69
 P.Frequency     1738.93     1776.83     3047.85     3053.08     3063.47     3119.64
 P.Frequency     3120.98     3131.56     3172.72     3190.04     3192.21     3246.70

 Normal Eigenvalue ||           Projected Infra Red Intensities
  Mode   [cm**-1]  || [atomic units] [(debye/angs)**2] [(KM/mol)] [arbitrary]
 ------ ---------- || -------------- ----------------- ---------- -----------
    1      -51.283 ||    0.000477           0.011         0.465       0.138
    2       -0.000 ||    0.000002           0.000         0.002       0.001
    3       -0.000 ||    0.000088           0.002         0.085       0.025
    4       -0.000 ||    0.000277           0.006         0.270       0.080
    5       -0.000 ||    0.000207           0.005         0.202       0.060
    6        0.000 ||    0.000148           0.003         0.144       0.043
    7        0.000 ||    0.000582           0.013         0.567       0.168
    8       44.919 ||    0.000433           0.010         0.422       0.125
    9       67.144 ||    0.000294           0.007         0.287       0.085
   10       86.726 ||    0.002293           0.053         2.236       0.663
   11      115.165 ||    0.000010           0.000         0.010       0.003
   12      122.990 ||    0.009018           0.208         8.791       2.606
   13      150.051 ||    0.002071           0.048         2.019       0.599
   14      219.979 ||    0.011131           0.257        10.851       3.217
   15      225.414 ||    0.000412           0.010         0.402       0.119
   16      275.259 ||    0.000173           0.004         0.169       0.050
   17      300.201 ||    0.000532           0.012         0.519       0.154
   18      356.117 ||    0.010067           0.232         9.814       2.910
   19      363.118 ||    0.000292           0.007         0.285       0.084
   20      397.598 ||    0.013836           0.319        13.488       3.999
   21      422.325 ||    0.021340           0.492        20.803       6.168
   22      442.041 ||    0.010807           0.249        10.535       3.123
   23      480.474 ||    0.019378           0.447        18.890       5.600
   24      555.530 ||    0.002496           0.058         2.433       0.721
   25      618.747 ||    0.010895           0.251        10.621       3.149
   26      643.065 ||    0.001244           0.029         1.213       0.360
   27      704.804 ||    0.000145           0.003         0.141       0.042
   28      749.586 ||    0.013113           0.303        12.783       3.790
   29      749.877 ||    0.013864           0.320        13.515       4.007
   30      760.791 ||    0.012704           0.293        12.384       3.672
   31      812.481 ||    0.000080           0.002         0.078       0.023
   32      839.712 ||    0.010375           0.239        10.114       2.999
   33      941.172 ||    0.009049           0.209         8.822       2.615
   34      994.589 ||    0.032374           0.747        31.560       9.357
   35     1041.301 ||    0.055892           1.289        54.486      16.154
   36     1075.358 ||    0.005351           0.123         5.216       1.546
   37     1089.505 ||    0.020028           0.462        19.524       5.788
   38     1137.625 ||    0.000052           0.001         0.050       0.015
   39     1142.350 ||    0.000165           0.004         0.161       0.048
   40     1144.304 ||    0.000077           0.002         0.075       0.022
   41     1206.394 ||    0.040131           0.926        39.122      11.599
   42     1236.097 ||    0.010018           0.231         9.766       2.895
   43     1256.604 ||    0.057461           1.326        56.016      16.607
   44     1265.972 ||    0.021896           0.505        21.345       6.328
   45     1314.377 ||    0.028788           0.664        28.064       8.320
   46     1363.650 ||    0.071782           1.656        69.976      20.746
   47     1379.379 ||    0.019021           0.439        18.542       5.497
   48     1403.132 ||    0.007653           0.177         7.460       2.212
   49     1416.565 ||    0.009365           0.216         9.130       2.707
   50     1428.334 ||    0.036428           0.840        35.511      10.528
   51     1450.519 ||    0.070040           1.616        68.279      20.243
   52     1465.324 ||    0.009320           0.215         9.086       2.694
   53     1467.172 ||    0.007713           0.178         7.519       2.229
   54     1474.199 ||    0.022684           0.523        22.114       6.556
   55     1478.721 ||    0.008777           0.202         8.556       2.537
   56     1480.549 ||    0.000819           0.019         0.799       0.237
   57     1488.511 ||    0.019553           0.451        19.061       5.651
   58     1510.093 ||    0.223452           5.155       217.832      64.582
   59     1586.888 ||    0.142396           3.285       138.814      41.155
   60     1640.691 ||    0.069119           1.595        67.381      19.977
   61     1738.928 ||    0.768086          17.720       748.769     221.991
   62     1776.831 ||    0.381041           8.791       371.458     110.128
   63     3047.854 ||    0.053975           1.245        52.618      15.600
   64     3053.079 ||    0.040409           0.932        39.393      11.679
   65     3063.474 ||    0.030653           0.707        29.882       8.859
   66     3119.639 ||    0.012851           0.296        12.528       3.714
   67     3120.978 ||    0.016300           0.376        15.890       4.711
   68     3131.558 ||    0.014008           0.323        13.656       4.049
   69     3172.724 ||    0.003447           0.080         3.360       0.996
   70     3190.043 ||    0.000318           0.007         0.310       0.092
   71     3192.215 ||    0.000943           0.022         0.919       0.273
   72     3246.704 ||    0.000969           0.022         0.945       0.280
 ----------------------------------------------------------------------------

 Total times  cpu:     7735.6s     wall:     7987.7s
